
2 atoms
1 atom types
0.0000000000000 7.0000000000000 xlo xhi
0.0000000000000 7.0000000000000 ylo yhi
0.0000000000000 7.0000000000000 zlo zhi

Atoms # atomic

1 1 0.1000000000000 0.1000000000000 0.1000000000000
2 1 6.1000000000000 0.1000000000000 0.1000000000000
